/*--------------------------------*- C++ -*----------------------------------*\
| =========                 |                                                 |
| \\      /  F ield         | OpenFOAM: The Open Source CFD Toolbox           |
|  \\    /   O peration     | Version:  2.0.1                                 |
|   \\  /    A nd           | Web:      www.OpenFOAM.COM                      |
|    \\/     M anipulation  |                                                 |
\*---------------------------------------------------------------------------*/
 
FoamFile
{
    version         2.0;
    format          ascii;
    class           polyBoundaryMesh;
    location       "constant/polyMesh";
    object          boundary;
}
 
// * * * * * * * * * * * * * * * * * * * * * * * * * * * * * * * * * * * * * //
 
3
(
    rim
    {
        type            patch;
        nFaces          396;
        startFace       29205;
    }
    front
    {
        type            empty;
        nFaces          19602;
        startFace       29601;
    }
    back
    {
        type            empty;
        nFaces          19602;
        startFace       49203;
    }
)


// ************************************************************************* //
